<?xml version="1.0" encoding="UTF-8"?>

<!-- generated on 11/11/25 14:30:35 by Eclipse SUMO GUI Version 1.8.0
<configuration xmlns:xsi="http://www.w3.org/2001/XMLSchema-instance" xsi:noNamespaceSchemaLocation="http://sumo.dlr.de/xsd/sumoConfiguration.xsd">

    <input>
        <net-file value="erlangen.net.xml"/>
        <route-files value="erlangen.rou.xml"/>
    </input>

    <output>
        <fcd-output value="fcd.xml"/>
        <tripinfo-output value="tripinfos.xml"/>
    </output>

    <time>
        <begin value="0"/>
        <end value="1000"/>
        <step-length value="0.1"/>
    </time>

    <report>
        <xml-validation value="never"/>
        <xml-validation.net value="never"/>
        <xml-validation.routes value="never"/>
        <no-step-log value="true"/>
    </report>

    <gui_only>
        <start value="true"/>
        <tracker-interval value="0.1"/>
    </gui_only>

</configuration>
-->

<tripinfos xmlns:xsi="http://www.w3.org/2001/XMLSchema-instance" xsi:noNamespaceSchemaLocation="http://sumo.dlr.de/xsd/tripinfo_file.xsd">
    <tripinfo id="f_SN.0" depart="0.00" departLane="S_in_0" departPos="5.10" departSpeed="0.00" departDelay="0.00" arrival="70.40" arrivalLane="N_out_0" arrivalPos="489.60" arrivalSpeed="15.03" duration="70.40" routeLength="994.90" waitingTime="0.00" waitingCount="0" stopTime="0.00" timeLoss="4.17" rerouteNo="0" devices="tripinfo_f_SN.0 fcd_f_SN.0" vType="standard_car" speedFactor="1.08" vaporized=""/>
    <tripinfo id="f_NS.0" depart="0.00" departLane="N_in_0" departPos="5.10" departSpeed="0.00" departDelay="0.00" arrival="73.10" arrivalLane="S_out_0" arrivalPos="489.60" arrivalSpeed="14.03" duration="73.10" routeLength="994.90" waitingTime="0.00" waitingCount="0" stopTime="0.00" timeLoss="2.20" rerouteNo="0" devices="tripinfo_f_NS.0 fcd_f_NS.0" vType="autonomous_car" speedFactor="1.01" vaporized=""/>
    <tripinfo id="f_SE.0" depart="2.70" departLane="S_in_0" departPos="5.10" departSpeed="0.00" departDelay="2.70" arrival="74.20" arrivalLane="E_out_0" arrivalPos="489.60" arrivalSpeed="15.14" duration="71.50" routeLength="983.13" waitingTime="0.00" waitingCount="0" stopTime="0.00" timeLoss="5.97" rerouteNo="0" devices="tripinfo_f_SE.0 fcd_f_SE.0" vType="standard_car" speedFactor="1.09" vaporized=""/>
    <tripinfo id="f_SW.0" depart="5.40" departLane="S_in_0" departPos="5.10" departSpeed="0.00" departDelay="5.40" arrival="80.30" arrivalLane="W_out_0" arrivalPos="489.60" arrivalSpeed="14.16" duration="74.90" routeLength="993.45" waitingTime="0.00" waitingCount="0" stopTime="0.00" timeLoss="4.47" rerouteNo="0" devices="tripinfo_f_SW.0 fcd_f_SW.0" vType="standard_car" speedFactor="1.03" vaporized=""/>
    <tripinfo id="f_NE.0" depart="2.10" departLane="N_in_0" departPos="5.10" departSpeed="0.00" departDelay="2.10" arrival="83.40" arrivalLane="E_out_0" arrivalPos="489.60" arrivalSpeed="13.02" duration="81.30" routeLength="993.45" waitingTime="0.00" waitingCount="0" stopTime="0.00" timeLoss="4.26" rerouteNo="0" devices="tripinfo_f_NE.0 fcd_f_NE.0" vType="standard_car" speedFactor="0.94" vaporized=""/>
    <tripinfo id="f_EN.0" depart="2.70" departLane="E_in_0" departPos="5.10" departSpeed="0.00" departDelay="2.70" arrival="84.70" arrivalLane="N_out_0" arrivalPos="489.60" arrivalSpeed="14.49" duration="82.00" routeLength="983.13" waitingTime="0.00" waitingCount="0" stopTime="0.00" timeLoss="13.60" rerouteNo="0" devices="tripinfo_f_EN.0 fcd_f_EN.0" vType="standard_car" speedFactor="1.05" vaporized=""/>
    <tripinfo id="f_WE.0" depart="0.00" departLane="W_in_0" departPos="5.10" departSpeed="0.00" departDelay="0.00" arrival="85.50" arrivalLane="E_out_0" arrivalPos="489.60" arrivalSpeed="14.46" duration="85.50" routeLength="994.90" waitingTime="5.10" waitingCount="1" stopTime="0.00" timeLoss="17.86" rerouteNo="0" devices="tripinfo_f_WE.0 fcd_f_WE.0" vType="autonomous_car" speedFactor="1.06" vaporized=""/>
    <tripinfo id="f_EW.0" depart="0.00" departLane="E_in_0" departPos="5.10" departSpeed="0.00" departDelay="0.00" arrival="87.60" arrivalLane="W_out_0" arrivalPos="489.60" arrivalSpeed="13.02" duration="87.60" routeLength="994.90" waitingTime="3.00" waitingCount="1" stopTime="0.00" timeLoss="11.26" rerouteNo="0" devices="tripinfo_f_EW.0 fcd_f_EW.0" vType="standard_car" speedFactor="0.94" vaporized=""/>
    <tripinfo id="f_WN.0" depart="2.10" departLane="W_in_0" departPos="5.10" departSpeed="0.00" departDelay="2.10" arrival="88.00" arrivalLane="N_out_0" arrivalPos="489.60" arrivalSpeed="14.27" duration="85.90" routeLength="993.45" waitingTime="5.00" waitingCount="2" stopTime="0.00" timeLoss="15.80" rerouteNo="0" devices="tripinfo_f_WN.0 fcd_f_WN.0" vType="standard_car" speedFactor="1.03" vaporized=""/>
    <tripinfo id="f_ES.0" depart="5.40" departLane="E_in_0" departPos="5.10" departSpeed="0.00" departDelay="5.40" arrival="94.50" arrivalLane="S_out_1" arrivalPos="489.60" arrivalSpeed="12.29" duration="89.10" routeLength="993.45" waitingTime="0.60" waitingCount="1" stopTime="0.00" timeLoss="7.56" rerouteNo="0" devices="tripinfo_f_ES.0 fcd_f_ES.0" vType="standard_car" speedFactor="0.89" vaporized=""/>
    <tripinfo id="f_WS.0" depart="4.80" departLane="W_in_0" departPos="5.10" departSpeed="0.00" departDelay="4.80" arrival="95.50" arrivalLane="S_out_0" arrivalPos="489.60" arrivalSpeed="11.46" duration="90.70" routeLength="983.13" waitingTime="0.00" waitingCount="0" stopTime="0.00" timeLoss="4.62" rerouteNo="0" devices="tripinfo_f_WS.0 fcd_f_WS.0" vType="standard_car" speedFactor="0.83" vaporized=""/>
    <tripinfo id="f_EW.1" depart="36.00" departLane="E_in_0" departPos="5.10" departSpeed="0.00" departDelay="0.00" arrival="104.10" arrivalLane="W_out_0" arrivalPos="489.60" arrivalSpeed="15.49" duration="68.10" routeLength="994.90" waitingTime="0.00" waitingCount="0" stopTime="0.00" timeLoss="4.26" rerouteNo="0" devices="tripinfo_f_EW.1 fcd_f_EW.1" vType="standard_car" speedFactor="1.12" vaporized=""/>
    <tripinfo id="f_WE.1" depart="36.00" departLane="W_in_0" departPos="5.10" departSpeed="0.00" departDelay="0.00" arrival="106.80" arrivalLane="E_out_0" arrivalPos="489.60" arrivalSpeed="14.54" duration="70.80" routeLength="994.90" waitingTime="0.00" waitingCount="0" stopTime="0.00" timeLoss="2.35" rerouteNo="0" devices="tripinfo_f_WE.1 fcd_f_WE.1" vType="autonomous_car" speedFactor="1.05" vaporized=""/>
    <tripinfo id="f_NS.1" depart="36.00" departLane="N_in_0" departPos="5.10" departSpeed="0.00" departDelay="0.00" arrival="129.20" arrivalLane="S_out_0" arrivalPos="489.60" arrivalSpeed="13.77" duration="93.20" routeLength="994.90" waitingTime="11.80" waitingCount="1" stopTime="0.00" timeLoss="20.94" rerouteNo="0" devices="tripinfo_f_NS.1 fcd_f_NS.1" vType="autonomous_car" speedFactor="0.99" vaporized=""/>
    <tripinfo id="f_SN.1" depart="36.00" departLane="S_in_0" departPos="5.10" departSpeed="0.00" departDelay="0.00" arrival="133.00" arrivalLane="N_out_0" arrivalPos="489.60" arrivalSpeed="12.78" duration="97.00" routeLength="994.90" waitingTime="11.50" waitingCount="1" stopTime="0.00" timeLoss="19.70" rerouteNo="0" devices="tripinfo_f_SN.1 fcd_f_SN.1" vType="standard_car" speedFactor="0.93" vaporized=""/>
    <tripinfo id="f_NW.0" depart="4.80" departLane="N_in_0" departPos="5.10" departSpeed="0.00" departDelay="4.80" arrival="135.30" arrivalLane="W_out_0" arrivalPos="489.60" arrivalSpeed="11.85" duration="130.50" routeLength="983.13" waitingTime="39.90" waitingCount="1" stopTime="0.00" timeLoss="47.02" rerouteNo="0" devices="tripinfo_f_NW.0 fcd_f_NW.0" vType="standard_car" speedFactor="0.86" vaporized=""/>
    <tripinfo id="f_SN.2" depart="72.00" departLane="S_in_0" departPos="5.10" departSpeed="0.00" departDelay="0.00" arrival="138.30" arrivalLane="N_out_0" arrivalPos="489.60" arrivalSpeed="15.99" duration="66.30" routeLength="994.90" waitingTime="0.00" waitingCount="0" stopTime="0.00" timeLoss="4.45" rerouteNo="0" devices="tripinfo_f_SN.2 fcd_f_SN.2" vType="standard_car" speedFactor="1.16" vaporized=""/>
    <tripinfo id="f_NS.2" depart="72.00" departLane="N_in_0" departPos="5.10" departSpeed="0.00" departDelay="0.00" arrival="150.60" arrivalLane="S_out_0" arrivalPos="489.60" arrivalSpeed="13.00" duration="78.60" routeLength="994.90" waitingTime="0.00" waitingCount="0" stopTime="0.00" timeLoss="2.10" rerouteNo="0" devices="tripinfo_f_NS.2 fcd_f_NS.2" vType="autonomous_car" speedFactor="0.94" vaporized=""/>
    <tripinfo id="f_SE.1" depart="74.70" departLane="S_in_0" departPos="5.10" departSpeed="0.00" departDelay="2.70" arrival="157.70" arrivalLane="E_out_0" arrivalPos="489.60" arrivalSpeed="12.64" duration="83.00" routeLength="983.13" waitingTime="0.00" waitingCount="0" stopTime="0.00" timeLoss="4.97" rerouteNo="0" devices="tripinfo_f_SE.1 fcd_f_SE.1" vType="standard_car" speedFactor="0.92" vaporized=""/>
    <tripinfo id="f_SW.1" depart="77.40" departLane="S_in_0" departPos="5.10" departSpeed="0.00" departDelay="5.40" arrival="162.30" arrivalLane="W_out_1" arrivalPos="489.60" arrivalSpeed="13.17" duration="84.90" routeLength="993.45" waitingTime="1.10" waitingCount="1" stopTime="0.00" timeLoss="8.71" rerouteNo="0" devices="tripinfo_f_SW.1 fcd_f_SW.1" vType="standard_car" speedFactor="0.95" vaporized=""/>
    <tripinfo id="f_NW.1" depart="76.80" departLane="N_in_0" departPos="5.10" departSpeed="0.00" departDelay="4.80" arrival="163.60" arrivalLane="W_out_0" arrivalPos="489.60" arrivalSpeed="12.03" duration="86.80" routeLength="983.13" waitingTime="0.00" waitingCount="0" stopTime="0.00" timeLoss="4.76" rerouteNo="0" devices="tripinfo_f_NW.1 fcd_f_NW.1" vType="standard_car" speedFactor="0.87" vaporized=""/>
    <tripinfo id="f_NE.1" depart="74.10" departLane="N_in_0" departPos="5.10" departSpeed="0.00" departDelay="2.10" arrival="165.60" arrivalLane="E_out_0" arrivalPos="489.60" arrivalSpeed="11.45" duration="91.50" routeLength="993.45" waitingTime="0.00" waitingCount="0" stopTime="0.00" timeLoss="4.00" rerouteNo="0" devices="tripinfo_f_NE.1 fcd_f_NE.1" vType="standard_car" speedFactor="0.83" vaporized=""/>
    <tripinfo id="f_WS.1" depart="76.80" departLane="W_in_0" departPos="5.10" departSpeed="0.00" departDelay="4.80" arrival="175.60" arrivalLane="S_out_0" arrivalPos="489.60" arrivalSpeed="13.97" duration="98.80" routeLength="983.13" waitingTime="14.30" waitingCount="1" stopTime="0.00" timeLoss="27.93" rerouteNo="0" devices="tripinfo_f_WS.1 fcd_f_WS.1" vType="standard_car" speedFactor="1.01" vaporized=""/>
    <tripinfo id="f_WE.3" depart="108.00" departLane="W_in_0" departPos="5.10" departSpeed="0.00" departDelay="0.00" arrival="176.50" arrivalLane="E_out_1" arrivalPos="489.60" arrivalSpeed="15.72" duration="68.50" routeLength="994.90" waitingTime="0.00" waitingCount="0" stopTime="0.00" timeLoss="5.15" rerouteNo="0" devices="tripinfo_f_WE.3 fcd_f_WE.3" vType="autonomous_car" speedFactor="1.13" vaporized=""/>
    <tripinfo id="f_EN.1" depart="74.70" departLane="E_in_0" departPos="5.10" departSpeed="0.00" departDelay="2.70" arrival="177.30" arrivalLane="N_out_0" arrivalPos="489.60" arrivalSpeed="13.50" duration="102.60" routeLength="983.13" waitingTime="16.60" waitingCount="1" stopTime="0.00" timeLoss="29.23" rerouteNo="0" devices="tripinfo_f_EN.1 fcd_f_EN.1" vType="standard_car" speedFactor="0.98" vaporized=""/>
    <tripinfo id="f_EW.2" depart="72.00" departLane="E_in_0" departPos="5.10" departSpeed="0.00" departDelay="0.00" arrival="177.60" arrivalLane="W_out_0" arrivalPos="489.60" arrivalSpeed="13.05" duration="105.60" routeLength="994.90" waitingTime="21.00" waitingCount="1" stopTime="0.00" timeLoss="29.44" rerouteNo="0" devices="tripinfo_f_EW.2 fcd_f_EW.2" vType="standard_car" speedFactor="0.94" vaporized=""/>
    <tripinfo id="f_WN.1" depart="74.10" departLane="W_in_0" departPos="5.10" departSpeed="0.00" departDelay="2.10" arrival="178.60" arrivalLane="N_out_1" arrivalPos="489.60" arrivalSpeed="14.05" duration="104.50" routeLength="993.45" waitingTime="22.70" waitingCount="2" stopTime="0.00" timeLoss="33.54" rerouteNo="0" devices="tripinfo_f_WN.1 fcd_f_WN.1" vType="standard_car" speedFactor="1.02" vaporized=""/>
    <tripinfo id="f_WE.2" depart="72.00" departLane="W_in_0" departPos="5.10" departSpeed="0.00" departDelay="0.00" arrival="178.80" arrivalLane="E_out_0" arrivalPos="489.60" arrivalSpeed="12.20" duration="106.80" routeLength="994.90" waitingTime="17.00" waitingCount="1" stopTime="0.00" timeLoss="25.24" rerouteNo="0" devices="tripinfo_f_WE.2 fcd_f_WE.2" vType="autonomous_car" speedFactor="0.88" vaporized=""/>
    <tripinfo id="f_ES.1" depart="77.40" departLane="E_in_0" departPos="5.10" departSpeed="0.00" departDelay="5.40" arrival="187.20" arrivalLane="S_out_0" arrivalPos="489.60" arrivalSpeed="12.30" duration="109.80" routeLength="993.45" waitingTime="18.90" waitingCount="3" stopTime="0.00" timeLoss="28.61" rerouteNo="0" devices="tripinfo_f_ES.1 fcd_f_ES.1" vType="standard_car" speedFactor="0.89" vaporized=""/>
    <tripinfo id="f_EW.3" depart="108.00" departLane="E_in_0" departPos="5.10" departSpeed="0.00" departDelay="0.00" arrival="188.60" arrivalLane="W_out_0" arrivalPos="489.60" arrivalSpeed="12.88" duration="80.60" routeLength="994.90" waitingTime="0.00" waitingCount="0" stopTime="0.00" timeLoss="3.62" rerouteNo="0" devices="tripinfo_f_EW.3 fcd_f_EW.3" vType="standard_car" speedFactor="0.93" vaporized=""/>
    <tripinfo id="f_EW.4" depart="144.00" departLane="E_in_0" departPos="5.10" departSpeed="0.00" departDelay="0.00" arrival="209.40" arrivalLane="W_out_0" arrivalPos="489.60" arrivalSpeed="16.24" duration="65.40" routeLength="994.90" waitingTime="0.00" waitingCount="0" stopTime="0.00" timeLoss="4.21" rerouteNo="0" devices="tripinfo_f_EW.4 fcd_f_EW.4" vType="standard_car" speedFactor="1.17" vaporized=""/>
    <tripinfo id="f_NS.3" depart="108.00" departLane="N_in_0" departPos="5.10" departSpeed="0.00" departDelay="0.00" arrival="213.80" arrivalLane="S_out_0" arrivalPos="489.60" arrivalSpeed="16.37" duration="105.80" routeLength="994.90" waitingTime="35.00" waitingCount="1" stopTime="0.00" timeLoss="44.95" rerouteNo="0" devices="tripinfo_f_NS.3 fcd_f_NS.3" vType="autonomous_car" speedFactor="1.18" vaporized=""/>
    <tripinfo id="f_SN.3" depart="108.00" departLane="S_in_0" departPos="5.10" departSpeed="0.00" departDelay="0.00" arrival="216.00" arrivalLane="N_out_0" arrivalPos="489.60" arrivalSpeed="15.98" duration="108.00" routeLength="994.90" waitingTime="35.90" waitingCount="1" stopTime="0.00" timeLoss="45.92" rerouteNo="0" devices="tripinfo_f_SN.3 fcd_f_SN.3" vType="standard_car" speedFactor="1.15" vaporized=""/>
    <tripinfo id="f_SN.4" depart="144.00" departLane="S_in_0" departPos="5.10" departSpeed="0.00" departDelay="0.00" arrival="218.60" arrivalLane="N_out_0" arrivalPos="489.60" arrivalSpeed="14.14" duration="74.60" routeLength="994.90" waitingTime="0.00" waitingCount="0" stopTime="0.00" timeLoss="4.34" rerouteNo="0" devices="tripinfo_f_SN.4 fcd_f_SN.4" vType="standard_car" speedFactor="1.02" vaporized=""/>
    <tripinfo id="f_SE.2" depart="146.70" departLane="S_in_0" departPos="5.10" departSpeed="0.00" departDelay="2.70" arrival="219.50" arrivalLane="E_out_0" arrivalPos="489.60" arrivalSpeed="15.15" duration="72.80" routeLength="983.13" waitingTime="0.00" waitingCount="0" stopTime="0.00" timeLoss="7.21" rerouteNo="0" devices="tripinfo_f_SE.2 fcd_f_SE.2" vType="standard_car" speedFactor="1.09" vaporized=""/>
    <tripinfo id="f_NS.4" depart="144.00" departLane="N_in_0" departPos="5.10" departSpeed="0.00" departDelay="0.00" arrival="220.80" arrivalLane="S_out_0" arrivalPos="489.60" arrivalSpeed="13.82" duration="76.80" routeLength="994.90" waitingTime="0.00" waitingCount="0" stopTime="0.00" timeLoss="4.80" rerouteNo="0" devices="tripinfo_f_NS.4 fcd_f_NS.4" vType="autonomous_car" speedFactor="0.99" vaporized=""/>
    <tripinfo id="f_NE.2" depart="146.10" departLane="N_in_0" departPos="5.10" departSpeed="0.00" departDelay="2.10" arrival="221.70" arrivalLane="E_out_0" arrivalPos="489.60" arrivalSpeed="14.19" duration="75.60" routeLength="993.45" waitingTime="0.00" waitingCount="0" stopTime="0.00" timeLoss="5.53" rerouteNo="0" devices="tripinfo_f_NE.2 fcd_f_NE.2" vType="standard_car" speedFactor="1.03" vaporized=""/>
    <tripinfo id="f_SW.2" depart="149.40" departLane="S_in_0" departPos="5.10" departSpeed="0.00" departDelay="5.40" arrival="227.90" arrivalLane="W_out_1" arrivalPos="489.60" arrivalSpeed="14.39" duration="78.50" routeLength="993.45" waitingTime="0.60" waitingCount="1" stopTime="0.00" timeLoss="8.89" rerouteNo="0" devices="tripinfo_f_SW.2 fcd_f_SW.2" vType="standard_car" speedFactor="1.04" vaporized=""/>
    <tripinfo id="f_NW.2" depart="148.80" departLane="N_in_0" departPos="5.10" departSpeed="0.00" departDelay="4.80" arrival="228.60" arrivalLane="W_out_0" arrivalPos="489.60" arrivalSpeed="13.20" duration="79.80" routeLength="983.13" waitingTime="0.00" waitingCount="0" stopTime="0.00" timeLoss="5.05" rerouteNo="0" devices="tripinfo_f_NW.2 fcd_f_NW.2" vType="standard_car" speedFactor="0.96" vaporized=""/>
    <tripinfo id="f_NS.5" depart="180.00" departLane="N_in_0" departPos="5.10" departSpeed="0.00" departDelay="0.00" arrival="254.00" arrivalLane="S_out_0" arrivalPos="489.60" arrivalSpeed="13.85" duration="74.00" routeLength="994.90" waitingTime="0.00" waitingCount="0" stopTime="0.00" timeLoss="2.19" rerouteNo="0" devices="tripinfo_f_NS.5 fcd_f_NS.5" vType="autonomous_car" speedFactor="1.00" vaporized=""/>
    <tripinfo id="f_WS.2" depart="148.80" departLane="W_in_0" departPos="5.10" departSpeed="0.00" departDelay="4.80" arrival="260.70" arrivalLane="S_out_0" arrivalPos="489.60" arrivalSpeed="16.31" duration="111.90" routeLength="983.13" waitingTime="36.30" waitingCount="1" stopTime="0.00" timeLoss="51.30" rerouteNo="0" devices="tripinfo_f_WS.2 fcd_f_WS.2" vType="standard_car" speedFactor="1.18" vaporized=""/>
    <tripinfo id="f_EN.2" depart="146.70" departLane="E_in_0" departPos="5.10" departSpeed="0.00" departDelay="2.70" arrival="261.80" arrivalLane="N_out_1" arrivalPos="489.60" arrivalSpeed="15.27" duration="115.10" routeLength="983.13" waitingTime="41.10" waitingCount="1" stopTime="0.00" timeLoss="50.15" rerouteNo="0" devices="tripinfo_f_EN.2 fcd_f_EN.2" vType="standard_car" speedFactor="1.10" vaporized=""/>
    <tripinfo id="f_SN.5" depart="180.00" departLane="S_in_0" departPos="5.10" departSpeed="0.00" departDelay="0.00" arrival="263.00" arrivalLane="N_out_0" arrivalPos="489.60" arrivalSpeed="12.41" duration="83.00" routeLength="994.90" waitingTime="0.00" waitingCount="0" stopTime="0.00" timeLoss="3.46" rerouteNo="0" devices="tripinfo_f_SN.5 fcd_f_SN.5" vType="standard_car" speedFactor="0.90" vaporized=""/>
    <tripinfo id="f_WE.4" depart="144.00" departLane="W_in_0" departPos="5.10" departSpeed="0.00" departDelay="0.00" arrival="263.80" arrivalLane="E_out_0" arrivalPos="489.60" arrivalSpeed="13.96" duration="119.80" routeLength="994.90" waitingTime="39.90" waitingCount="1" stopTime="0.00" timeLoss="48.46" rerouteNo="0" devices="tripinfo_f_WE.4 fcd_f_WE.4" vType="autonomous_car" speedFactor="1.01" vaporized=""/>
    <tripinfo id="f_EW.5" depart="180.00" departLane="E_in_0" departPos="5.10" departSpeed="0.00" departDelay="0.00" arrival="264.00" arrivalLane="W_out_0" arrivalPos="489.60" arrivalSpeed="15.11" duration="84.00" routeLength="994.90" waitingTime="4.40" waitingCount="1" stopTime="0.00" timeLoss="18.12" rerouteNo="0" devices="tripinfo_f_EW.5 fcd_f_EW.5" vType="standard_car" speedFactor="1.09" vaporized=""/>
    <tripinfo id="f_WE.5" depart="180.00" departLane="W_in_0" departPos="5.10" departSpeed="0.00" departDelay="0.00" arrival="270.00" arrivalLane="E_out_0" arrivalPos="489.60" arrivalSpeed="14.49" duration="90.00" routeLength="994.90" waitingTime="5.80" waitingCount="2" stopTime="0.00" timeLoss="21.34" rerouteNo="0" devices="tripinfo_f_WE.5 fcd_f_WE.5" vType="autonomous_car" speedFactor="1.04" vaporized=""/>
    <tripinfo id="f_WN.2" depart="146.10" departLane="W_in_0" departPos="5.10" departSpeed="0.00" departDelay="2.10" arrival="271.60" arrivalLane="N_out_0" arrivalPos="489.60" arrivalSpeed="13.50" duration="125.50" routeLength="993.45" waitingTime="40.80" waitingCount="2" stopTime="0.00" timeLoss="51.24" rerouteNo="0" devices="tripinfo_f_WN.2 fcd_f_WN.2" vType="standard_car" speedFactor="0.97" vaporized=""/>
    <tripinfo id="f_ES.2" depart="149.40" departLane="E_in_0" departPos="5.10" departSpeed="0.00" departDelay="5.40" arrival="272.90" arrivalLane="S_out_0" arrivalPos="489.60" arrivalSpeed="12.48" duration="123.50" routeLength="993.45" waitingTime="33.80" waitingCount="2" stopTime="0.00" timeLoss="43.32" rerouteNo="0" devices="tripinfo_f_ES.2 fcd_f_ES.2" vType="standard_car" speedFactor="0.90" vaporized=""/>
    <tripinfo id="f_WS.3" depart="220.80" departLane="W_in_0" departPos="5.10" departSpeed="0.00" departDelay="4.80" arrival="294.50" arrivalLane="S_out_0" arrivalPos="489.60" arrivalSpeed="15.12" duration="73.70" routeLength="983.13" waitingTime="0.00" waitingCount="0" stopTime="0.00" timeLoss="8.46" rerouteNo="0" devices="tripinfo_f_WS.3 fcd_f_WS.3" vType="standard_car" speedFactor="1.10" vaporized=""/>
    <tripinfo id="f_ES.3" depart="221.40" departLane="E_in_0" departPos="5.10" departSpeed="0.00" departDelay="5.40" arrival="298.90" arrivalLane="S_out_0" arrivalPos="489.60" arrivalSpeed="13.71" duration="77.50" routeLength="993.45" waitingTime="0.00" waitingCount="0" stopTime="0.00" timeLoss="4.95" rerouteNo="0" devices="tripinfo_f_ES.3 fcd_f_ES.3" vType="standard_car" speedFactor="1.00" vaporized=""/>
    <tripinfo id="f_WE.6" depart="216.00" departLane="W_in_0" departPos="5.10" departSpeed="0.00" departDelay="0.00" arrival="299.70" arrivalLane="E_out_0" arrivalPos="489.60" arrivalSpeed="12.18" duration="83.70" routeLength="994.90" waitingTime="0.00" waitingCount="0" stopTime="0.00" timeLoss="1.93" rerouteNo="0" devices="tripinfo_f_WE.6 fcd_f_WE.6" vType="autonomous_car" speedFactor="0.88" vaporized=""/>
    <tripinfo id="f_EN.3" depart="218.70" departLane="E_in_0" departPos="5.10" departSpeed="0.00" departDelay="2.70" arrival="299.80" arrivalLane="N_out_0" arrivalPos="489.60" arrivalSpeed="13.93" duration="81.10" routeLength="983.13" waitingTime="0.00" waitingCount="0" stopTime="0.00" timeLoss="9.82" rerouteNo="0" devices="tripinfo_f_EN.3 fcd_f_EN.3" vType="standard_car" speedFactor="1.00" vaporized=""/>
    <tripinfo id="f_WN.3" depart="218.10" departLane="W_in_0" departPos="5.10" departSpeed="0.00" departDelay="2.10" arrival="301.60" arrivalLane="N_out_0" arrivalPos="489.60" arrivalSpeed="14.06" duration="83.50" routeLength="993.45" waitingTime="4.10" waitingCount="1" stopTime="0.00" timeLoss="12.39" rerouteNo="0" devices="tripinfo_f_WN.3 fcd_f_WN.3" vType="standard_car" speedFactor="1.02" vaporized=""/>
    <tripinfo id="f_EW.6" depart="216.00" departLane="E_in_0" departPos="5.10" departSpeed="0.00" departDelay="0.00" arrival="303.60" arrivalLane="W_out_0" arrivalPos="489.60" arrivalSpeed="11.73" duration="87.60" routeLength="994.90" waitingTime="0.00" waitingCount="0" stopTime="0.00" timeLoss="3.28" rerouteNo="0" devices="tripinfo_f_EW.6 fcd_f_EW.6" vType="standard_car" speedFactor="0.85" vaporized=""/>
    <tripinfo id="f_SN.6" depart="216.00" departLane="S_in_0" departPos="5.10" departSpeed="0.00" departDelay="0.00" arrival="305.80" arrivalLane="N_out_0" arrivalPos="489.60" arrivalSpeed="16.19" duration="89.80" routeLength="994.90" waitingTime="17.90" waitingCount="1" stopTime="0.00" timeLoss="28.43" rerouteNo="0" devices="tripinfo_f_SN.6 fcd_f_SN.6" vType="standard_car" speedFactor="1.17" vaporized=""/>
    <tripinfo id="f_NW.3" depart="220.90" departLane="N_in_0" departPos="5.10" departSpeed="0.00" departDelay="4.90" arrival="306.70" arrivalLane="W_out_0" arrivalPos="489.60" arrivalSpeed="15.87" duration="85.80" routeLength="983.13" waitingTime="4.30" waitingCount="1" stopTime="0.00" timeLoss="23.12" rerouteNo="0" devices="tripinfo_f_NW.3 fcd_f_NW.3" vType="standard_car" speedFactor="1.14" vaporized=""/>
    <tripinfo id="f_SE.3" depart="218.70" departLane="S_in_0" departPos="5.10" departSpeed="0.00" departDelay="2.70" arrival="310.60" arrivalLane="E_out_0" arrivalPos="489.60" arrivalSpeed="14.16" duration="91.90" routeLength="983.13" waitingTime="9.10" waitingCount="1" stopTime="0.00" timeLoss="21.99" rerouteNo="0" devices="tripinfo_f_SE.3 fcd_f_SE.3" vType="standard_car" speedFactor="1.02" vaporized=""/>
    <tripinfo id="f_SW.3" depart="221.40" departLane="S_in_0" departPos="5.10" departSpeed="0.00" departDelay="5.40" arrival="314.10" arrivalLane="W_out_0" arrivalPos="489.60" arrivalSpeed="13.40" duration="92.70" routeLength="993.45" waitingTime="7.70" waitingCount="2" stopTime="0.00" timeLoss="18.15" rerouteNo="0" devices="tripinfo_f_SW.3 fcd_f_SW.3" vType="standard_car" speedFactor="0.97" vaporized=""/>
    <tripinfo id="f_NS.6" depart="216.00" departLane="N_in_0" departPos="5.10" departSpeed="0.00" departDelay="0.00" arrival="314.90" arrivalLane="S_out_0" arrivalPos="489.60" arrivalSpeed="11.87" duration="98.90" routeLength="994.90" waitingTime="7.00" waitingCount="1" stopTime="0.00" timeLoss="15.07" rerouteNo="0" devices="tripinfo_f_NS.6 fcd_f_NS.6" vType="autonomous_car" speedFactor="0.85" vaporized=""/>
    <tripinfo id="f_NE.3" depart="218.10" departLane="N_in_0" departPos="5.10" departSpeed="0.00" departDelay="2.10" arrival="317.90" arrivalLane="E_out_0" arrivalPos="489.60" arrivalSpeed="12.45" duration="99.80" routeLength="993.45" waitingTime="9.70" waitingCount="2" stopTime="0.00" timeLoss="19.37" rerouteNo="0" devices="tripinfo_f_NE.3 fcd_f_NE.3" vType="standard_car" speedFactor="0.90" vaporized=""/>
    <tripinfo id="f_NS.7" depart="252.00" departLane="N_in_0" departPos="5.10" departSpeed="0.00" departDelay="0.00" arrival="325.00" arrivalLane="S_out_0" arrivalPos="489.60" arrivalSpeed="14.11" duration="73.00" routeLength="994.90" waitingTime="0.00" waitingCount="0" stopTime="0.00" timeLoss="2.43" rerouteNo="0" devices="tripinfo_f_NS.7 fcd_f_NS.7" vType="autonomous_car" speedFactor="1.02" vaporized=""/>
    <tripinfo id="f_SN.7" depart="252.00" departLane="S_in_0" departPos="5.10" departSpeed="0.00" departDelay="0.00" arrival="328.40" arrivalLane="N_out_0" arrivalPos="489.60" arrivalSpeed="13.67" duration="76.40" routeLength="994.90" waitingTime="0.00" waitingCount="0" stopTime="0.00" timeLoss="3.74" rerouteNo="0" devices="tripinfo_f_SN.7 fcd_f_SN.7" vType="standard_car" speedFactor="0.99" vaporized=""/>
    <tripinfo id="f_WE.7" depart="252.00" departLane="W_in_0" departPos="5.10" departSpeed="0.00" departDelay="0.00" arrival="351.30" arrivalLane="E_out_0" arrivalPos="489.60" arrivalSpeed="15.04" duration="99.30" routeLength="994.90" waitingTime="23.70" waitingCount="1" stopTime="0.00" timeLoss="33.11" rerouteNo="0" devices="tripinfo_f_WE.7 fcd_f_WE.7" vType="autonomous_car" speedFactor="1.08" vaporized=""/>
    <tripinfo id="f_EW.7" depart="252.00" departLane="E_in_0" departPos="5.10" departSpeed="0.00" departDelay="0.00" arrival="351.80" arrivalLane="W_out_0" arrivalPos="489.60" arrivalSpeed="15.49" duration="99.80" routeLength="994.90" waitingTime="26.00" waitingCount="1" stopTime="0.00" timeLoss="35.79" rerouteNo="0" devices="tripinfo_f_EW.7 fcd_f_EW.7" vType="standard_car" speedFactor="1.12" vaporized=""/>
    <tripinfo id="f_WE.8" depart="288.00" departLane="W_in_0" departPos="5.10" departSpeed="0.00" departDelay="0.00" arrival="366.60" arrivalLane="E_out_0" arrivalPos="489.60" arrivalSpeed="13.02" duration="78.60" routeLength="994.90" waitingTime="0.00" waitingCount="0" stopTime="0.00" timeLoss="2.21" rerouteNo="0" devices="tripinfo_f_WE.8 fcd_f_WE.8" vType="autonomous_car" speedFactor="0.94" vaporized=""/>
    <tripinfo id="f_WS.4" depart="292.80" departLane="W_in_0" departPos="5.10" departSpeed="0.00" departDelay="4.80" arrival="368.20" arrivalLane="S_out_0" arrivalPos="489.60" arrivalSpeed="14.09" duration="75.40" routeLength="983.13" waitingTime="0.00" waitingCount="0" stopTime="0.00" timeLoss="5.38" rerouteNo="0" devices="tripinfo_f_WS.4 fcd_f_WS.4" vType="standard_car" speedFactor="1.02" vaporized=""/>
    <tripinfo id="f_EN.4" depart="290.70" departLane="E_in_0" departPos="5.10" departSpeed="0.00" departDelay="2.70" arrival="369.90" arrivalLane="N_out_0" arrivalPos="489.60" arrivalSpeed="14.14" duration="79.20" routeLength="983.13" waitingTime="0.00" waitingCount="0" stopTime="0.00" timeLoss="9.26" rerouteNo="0" devices="tripinfo_f_EN.4 fcd_f_EN.4" vType="standard_car" speedFactor="1.02" vaporized=""/>
    <tripinfo id="f_WN.4" depart="290.10" departLane="W_in_0" departPos="5.10" departSpeed="0.00" departDelay="2.10" arrival="371.50" arrivalLane="N_out_1" arrivalPos="489.60" arrivalSpeed="14.34" duration="81.40" routeLength="993.45" waitingTime="3.50" waitingCount="1" stopTime="0.00" timeLoss="11.89" rerouteNo="0" devices="tripinfo_f_WN.4 fcd_f_WN.4" vType="standard_car" speedFactor="1.04" vaporized=""/>
    <tripinfo id="f_ES.4" depart="293.40" departLane="E_in_0" departPos="5.10" departSpeed="0.00" departDelay="5.40" arrival="372.50" arrivalLane="S_out_0" arrivalPos="489.60" arrivalSpeed="13.39" duration="79.10" routeLength="993.45" waitingTime="0.00" waitingCount="0" stopTime="0.00" timeLoss="4.78" rerouteNo="0" devices="tripinfo_f_ES.4 fcd_f_ES.4" vType="standard_car" speedFactor="0.97" vaporized=""/>
    <tripinfo id="f_EW.8" depart="288.00" departLane="E_in_0" departPos="5.10" departSpeed="0.00" departDelay="0.00" arrival="372.70" arrivalLane="W_out_0" arrivalPos="489.60" arrivalSpeed="12.22" duration="84.70" routeLength="994.90" waitingTime="0.00" waitingCount="0" stopTime="0.00" timeLoss="3.52" rerouteNo="0" devices="tripinfo_f_EW.8 fcd_f_EW.8" vType="standard_car" speedFactor="0.88" vaporized=""/>